Two gold atoms

2 atoms
2 atom types

-40.0 40.0 xlo xhi
-40.0 40.0 ylo yhi
-40.0 40.0 zlo zhi

Masses

1 196.967
2 196.967

Atoms

1      1      1      0      0      0      0
2      2      2      0      0      0      0
